# vtk DataFile Version 2.0
VTK file generated by VTK Generator (grid: grid)
ASCII
DATASET POLYDATA
POINTS 27 float
0.0 0.0 0.0
5.0 0.0 0.0
10.0 0.0 0.0
0.0 5.0 0.0
5.0 5.0 0.0
10.0 5.0 0.0
0.0 10.0 0.0
5.0 10.0 0.0
10.0 10.0 0.0
0.0 0.0 8.0
5.0 0.0 8.0
10.0 0.0 8.0
0.0 5.0 8.0
5.0 5.0 8.0
10.0 5.0 8.0
0.0 10.0 8.0
5.0 10.0 8.0
10.0 10.0 8.0
0.0 0.0 16.0
5.0 0.0 16.0
10.0 0.0 16.0
0.0 5.0 16.0
5.0 5.0 16.0
10.0 5.0 16.0
0.0 10.0 16.0
5.0 10.0 16.0
10.0 10.0 16.0
POLYGONS 48 240
4 0 3 4 1
4 9 10 13 12
4 0 1 10 9
4 4 3 12 13
4 0 9 12 3
4 1 4 13 10
4 1 4 5 2
4 10 11 14 13
4 1 2 11 10
4 5 4 13 14
4 1 10 13 4
4 2 5 14 11
4 3 6 7 4
4 12 13 16 15
4 3 4 13 12
4 7 6 15 16
4 3 12 15 6
4 4 7 16 13
4 4 7 8 5
4 13 14 17 16
4 4 5 14 13
4 8 7 16 17
4 4 13 16 7
4 5 8 17 14
4 9 12 13 10
4 18 19 22 21
4 9 10 19 18
4 13 12 21 22
4 9 18 21 12
4 10 13 22 19
4 10 13 14 11
4 19 20 23 22
4 10 11 20 19
4 14 13 22 23
4 10 19 22 13
4 11 14 23 20
4 12 15 16 13
4 21 22 25 24
4 12 13 22 21
4 16 15 24 25
4 12 21 24 15
4 13 16 25 22
4 13 16 17 14
4 22 23 26 25
4 13 14 23 22
4 17 16 25 26
4 13 22 25 16
4 14 17 26 23

CELL_DATA 48
SCALARS CellId int 1
LOOKUP_TABLE default
0
1
2
3
4
5
6
7
8
9
10
11
12
13
14
15
16
17
18
19
20
21
22
23
24
25
26
27
28
29
30
31
32
33
34
35
36
37
38
39
40
41
42
43
44
45
46
47
