# vtk DataFile Version 2.0
VTK file generated by VTK Generator (grid: grid)
ASCII
DATASET POLYDATA
POINTS 108 float
0.0 0.0 0.0
5.0 0.0 0.0
10.0 0.0 0.0
0.0 4.0 0.0
5.0 4.0 0.0
10.0 4.0 0.0
0.0 8.0 0.0
5.0 8.0 0.0
10.0 8.0 0.0
0.0 12.0 0.0
5.0 12.0 0.0
10.0 12.0 0.0
0.0 0.0 2.0
5.0 0.0 2.0
10.0 0.0 2.0
0.0 4.0 2.0
5.0 4.0 2.0
10.0 4.0 2.0
0.0 8.0 2.0
5.0 8.0 2.0
10.0 8.0 2.0
0.0 12.0 2.0
5.0 12.0 2.0
10.0 12.0 2.0
0.0 0.0 4.0
5.0 0.0 4.0
10.0 0.0 4.0
0.0 4.0 4.0
5.0 4.0 4.0
10.0 4.0 4.0
0.0 8.0 4.0
5.0 8.0 4.0
10.0 8.0 4.0
0.0 12.0 4.0
5.0 12.0 4.0
10.0 12.0 4.0
0.0 0.0 6.0
5.0 0.0 6.0
10.0 0.0 6.0
0.0 4.0 6.0
5.0 4.0 6.0
10.0 4.0 6.0
0.0 8.0 6.0
5.0 8.0 6.0
10.0 8.0 6.0
0.0 12.0 6.0
5.0 12.0 6.0
10.0 12.0 6.0
0.0 0.0 8.0
5.0 0.0 8.0
10.0 0.0 8.0
0.0 4.0 8.0
5.0 4.0 8.0
10.0 4.0 8.0
0.0 8.0 8.0
5.0 8.0 8.0
10.0 8.0 8.0
0.0 12.0 8.0
5.0 12.0 8.0
10.0 12.0 8.0
0.0 0.0 10.0
5.0 0.0 10.0
10.0 0.0 10.0
0.0 4.0 10.0
5.0 4.0 10.0
10.0 4.0 10.0
0.0 8.0 10.0
5.0 8.0 10.0
10.0 8.0 10.0
0.0 12.0 10.0
5.0 12.0 10.0
10.0 12.0 10.0
0.0 0.0 12.0
5.0 0.0 12.0
10.0 0.0 12.0
0.0 4.0 12.0
5.0 4.0 12.0
10.0 4.0 12.0
0.0 8.0 12.0
5.0 8.0 12.0
10.0 8.0 12.0
0.0 12.0 12.0
5.0 12.0 12.0
10.0 12.0 12.0
0.0 0.0 14.0
5.0 0.0 14.0
10.0 0.0 14.0
0.0 4.0 14.0
5.0 4.0 14.0
10.0 4.0 14.0
0.0 8.0 14.0
5.0 8.0 14.0
10.0 8.0 14.0
0.0 12.0 14.0
5.0 12.0 14.0
10.0 12.0 14.0
0.0 0.0 16.0
5.0 0.0 16.0
10.0 0.0 16.0
0.0 4.0 16.0
5.0 4.0 16.0
10.0 4.0 16.0
0.0 8.0 16.0
5.0 8.0 16.0
10.0 8.0 16.0
0.0 12.0 16.0
5.0 12.0 16.0
10.0 12.0 16.0
POLYGONS 288 1440
4 0 3 4 1
4 12 13 16 15
4 0 1 13 12
4 4 3 15 16
4 0 12 15 3
4 1 4 16 13
4 1 4 5 2
4 13 14 17 16
4 1 2 14 13
4 5 4 16 17
4 1 13 16 4
4 2 5 17 14
4 3 6 7 4
4 15 16 19 18
4 3 4 16 15
4 7 6 18 19
4 3 15 18 6
4 4 7 19 16
4 4 7 8 5
4 16 17 20 19
4 4 5 17 16
4 8 7 19 20
4 4 16 19 7
4 5 8 20 17
4 6 9 10 7
4 18 19 22 21
4 6 7 19 18
4 10 9 21 22
4 6 18 21 9
4 7 10 22 19
4 7 10 11 8
4 19 20 23 22
4 7 8 20 19
4 11 10 22 23
4 7 19 22 10
4 8 11 23 20
4 12 15 16 13
4 24 25 28 27
4 12 13 25 24
4 16 15 27 28
4 12 24 27 15
4 13 16 28 25
4 13 16 17 14
4 25 26 29 28
4 13 14 26 25
4 17 16 28 29
4 13 25 28 16
4 14 17 29 26
4 15 18 19 16
4 27 28 31 30
4 15 16 28 27
4 19 18 30 31
4 15 27 30 18
4 16 19 31 28
4 16 19 20 17
4 28 29 32 31
4 16 17 29 28
4 20 19 31 32
4 16 28 31 19
4 17 20 32 29
4 18 21 22 19
4 30 31 34 33
4 18 19 31 30
4 22 21 33 34
4 18 30 33 21
4 19 22 34 31
4 19 22 23 20
4 31 32 35 34
4 19 20 32 31
4 23 22 34 35
4 19 31 34 22
4 20 23 35 32
4 24 27 28 25
4 36 37 40 39
4 24 25 37 36
4 28 27 39 40
4 24 36 39 27
4 25 28 40 37
4 25 28 29 26
4 37 38 41 40
4 25 26 38 37
4 29 28 40 41
4 25 37 40 28
4 26 29 41 38
4 27 30 31 28
4 39 40 43 42
4 27 28 40 39
4 31 30 42 43
4 27 39 42 30
4 28 31 43 40
4 28 31 32 29
4 40 41 44 43
4 28 29 41 40
4 32 31 43 44
4 28 40 43 31
4 29 32 44 41
4 30 33 34 31
4 42 43 46 45
4 30 31 43 42
4 34 33 45 46
4 30 42 45 33
4 31 34 46 43
4 31 34 35 32
4 43 44 47 46
4 31 32 44 43
4 35 34 46 47
4 31 43 46 34
4 32 35 47 44
4 36 39 40 37
4 48 49 52 51
4 36 37 49 48
4 40 39 51 52
4 36 48 51 39
4 37 40 52 49
4 37 40 41 38
4 49 50 53 52
4 37 38 50 49
4 41 40 52 53
4 37 49 52 40
4 38 41 53 50
4 39 42 43 40
4 51 52 55 54
4 39 40 52 51
4 43 42 54 55
4 39 51 54 42
4 40 43 55 52
4 40 43 44 41
4 52 53 56 55
4 40 41 53 52
4 44 43 55 56
4 40 52 55 43
4 41 44 56 53
4 42 45 46 43
4 54 55 58 57
4 42 43 55 54
4 46 45 57 58
4 42 54 57 45
4 43 46 58 55
4 43 46 47 44
4 55 56 59 58
4 43 44 56 55
4 47 46 58 59
4 43 55 58 46
4 44 47 59 56
4 48 51 52 49
4 60 61 64 63
4 48 49 61 60
4 52 51 63 64
4 48 60 63 51
4 49 52 64 61
4 49 52 53 50
4 61 62 65 64
4 49 50 62 61
4 53 52 64 65
4 49 61 64 52
4 50 53 65 62
4 51 54 55 52
4 63 64 67 66
4 51 52 64 63
4 55 54 66 67
4 51 63 66 54
4 52 55 67 64
4 52 55 56 53
4 64 65 68 67
4 52 53 65 64
4 56 55 67 68
4 52 64 67 55
4 53 56 68 65
4 54 57 58 55
4 66 67 70 69
4 54 55 67 66
4 58 57 69 70
4 54 66 69 57
4 55 58 70 67
4 55 58 59 56
4 67 68 71 70
4 55 56 68 67
4 59 58 70 71
4 55 67 70 58
4 56 59 71 68
4 60 63 64 61
4 72 73 76 75
4 60 61 73 72
4 64 63 75 76
4 60 72 75 63
4 61 64 76 73
4 61 64 65 62
4 73 74 77 76
4 61 62 74 73
4 65 64 76 77
4 61 73 76 64
4 62 65 77 74
4 63 66 67 64
4 75 76 79 78
4 63 64 76 75
4 67 66 78 79
4 63 75 78 66
4 64 67 79 76
4 64 67 68 65
4 76 77 80 79
4 64 65 77 76
4 68 67 79 80
4 64 76 79 67
4 65 68 80 77
4 66 69 70 67
4 78 79 82 81
4 66 67 79 78
4 70 69 81 82
4 66 78 81 69
4 67 70 82 79
4 67 70 71 68
4 79 80 83 82
4 67 68 80 79
4 71 70 82 83
4 67 79 82 70
4 68 71 83 80
4 72 75 76 73
4 84 85 88 87
4 72 73 85 84
4 76 75 87 88
4 72 84 87 75
4 73 76 88 85
4 73 76 77 74
4 85 86 89 88
4 73 74 86 85
4 77 76 88 89
4 73 85 88 76
4 74 77 89 86
4 75 78 79 76
4 87 88 91 90
4 75 76 88 87
4 79 78 90 91
4 75 87 90 78
4 76 79 91 88
4 76 79 80 77
4 88 89 92 91
4 76 77 89 88
4 80 79 91 92
4 76 88 91 79
4 77 80 92 89
4 78 81 82 79
4 90 91 94 93
4 78 79 91 90
4 82 81 93 94
4 78 90 93 81
4 79 82 94 91
4 79 82 83 80
4 91 92 95 94
4 79 80 92 91
4 83 82 94 95
4 79 91 94 82
4 80 83 95 92
4 84 87 88 85
4 96 97 100 99
4 84 85 97 96
4 88 87 99 100
4 84 96 99 87
4 85 88 100 97
4 85 88 89 86
4 97 98 101 100
4 85 86 98 97
4 89 88 100 101
4 85 97 100 88
4 86 89 101 98
4 87 90 91 88
4 99 100 103 102
4 87 88 100 99
4 91 90 102 103
4 87 99 102 90
4 88 91 103 100
4 88 91 92 89
4 100 101 104 103
4 88 89 101 100
4 92 91 103 104
4 88 100 103 91
4 89 92 104 101
4 90 93 94 91
4 102 103 106 105
4 90 91 103 102
4 94 93 105 106
4 90 102 105 93
4 91 94 106 103
4 91 94 95 92
4 103 104 107 106
4 91 92 104 103
4 95 94 106 107
4 91 103 106 94
4 92 95 107 104

CELL_DATA 288
SCALARS CellId int 1
LOOKUP_TABLE default
0
1
2
3
4
5
6
7
8
9
10
11
12
13
14
15
16
17
18
19
20
21
22
23
24
25
26
27
28
29
30
31
32
33
34
35
36
37
38
39
40
41
42
43
44
45
46
47
48
49
50
51
52
53
54
55
56
57
58
59
60
61
62
63
64
65
66
67
68
69
70
71
72
73
74
75
76
77
78
79
80
81
82
83
84
85
86
87
88
89
90
91
92
93
94
95
96
97
98
99
100
101
102
103
104
105
106
107
108
109
110
111
112
113
114
115
116
117
118
119
120
121
122
123
124
125
126
127
128
129
130
131
132
133
134
135
136
137
138
139
140
141
142
143
144
145
146
147
148
149
150
151
152
153
154
155
156
157
158
159
160
161
162
163
164
165
166
167
168
169
170
171
172
173
174
175
176
177
178
179
180
181
182
183
184
185
186
187
188
189
190
191
192
193
194
195
196
197
198
199
200
201
202
203
204
205
206
207
208
209
210
211
212
213
214
215
216
217
218
219
220
221
222
223
224
225
226
227
228
229
230
231
232
233
234
235
236
237
238
239
240
241
242
243
244
245
246
247
248
249
250
251
252
253
254
255
256
257
258
259
260
261
262
263
264
265
266
267
268
269
270
271
272
273
274
275
276
277
278
279
280
281
282
283
284
285
286
287
